V -t * -v 1.0a5 -a 0
A -t * -n 1 -p 0 -o 0x7fffffff -c 30 -a 1
A -t * -h 1 -m 1073741823 -s 0
n -t * -a 0 -s 0 -S UP -v circle -c black -i black
n -t * -a 1 -s 1 -S UP -v circle -c black -i black
l -t * -s 0 -d 1 -S UP -r 1000000 -D 0.5 -c black
+ -t 0.5 -s 0 -d 1 -p cbr -e 210 -c 0 -i 0 -a 0 -x {0.0 1.0 0 ------- null}
- -t 0.5 -s 0 -d 1 -p cbr -e 210 -c 0 -i 0 -a 0 -x {0.0 1.0 0 ------- null}
h -t 0.5 -s 0 -d 1 -p cbr -e 210 -c 0 -i 0 -a 0 -x {0.0 1.0 -1 ------- null}
+ -t 0.50375 -s 0 -d 1 -p cbr -e 210 -c 0 -i 1 -a 0 -x {0.0 1.0 1 ------- null}
- -t 0.50375 -s 0 -d 1 -p cbr -e 210 -c 0 -i 1 -a 0 -x {0.0 1.0 1 ------- null}
h -t 0.50375 -s 0 -d 1 -p cbr -e 210 -c 0 -i 1 -a 0 -x {0.0 1.0 -1 ------- null}
+ -t 0.5075 -s 0 -d 1 -p cbr -e 210 -c 0 -i 2 -a 0 -x {0.0 1.0 2 ------- null}
- -t 0.5075 -s 0 -d 1 -p cbr -e 210 -c 0 -i 2 -a 0 -x {0.0 1.0 2 ------- null}
h -t 0.5075 -s 0 -d 1 -p cbr -e 210 -c 0 -i 2 -a 0 -x {0.0 1.0 -1 ------- null}
+ -t 0.51125 -s 0 -d 1 -p cbr -e 210 -c 0 -i 3 -a 0 -x {0.0 1.0 3 ------- null}
- -t 0.51125 -s 0 -d 1 -p cbr -e 210 -c 0 -i 3 -a 0 -x {0.0 1.0 3 ------- null}
h -t 0.51125 -s 0 -d 1 -p cbr -e 210 -c 0 -i 3 -a 0 -x {0.0 1.0 -1 ------- null}
+ -t 0.515 -s 0 -d 1 -p cbr -e 210 -c 0 -i 4 -a 0 -x {0.0 1.0 4 ------- null}
- -t 0.515 -s 0 -d 1 -p cbr -e 210 -c 0 -i 4 -a 0 -x {0.0 1.0 4 ------- null}
h -t 0.515 -s 0 -d 1 -p cbr -e 210 -c 0 -i 4 -a 0 -x {0.0 1.0 -1 ------- null}
+ -t 0.51875 -s 0 -d 1 -p cbr -e 210 -c 0 -i 5 -a 0 -x {0.0 1.0 5 ------- null}
- -t 0.51875 -s 0 -d 1 -p cbr -e 210 -c 0 -i 5 -a 0 -x {0.0 1.0 5 ------- null}
h -t 0.51875 -s 0 -d 1 -p cbr -e 210 -c 0 -i 5 -a 0 -x {0.0 1.0 -1 ------- null}
+ -t 0.5225 -s 0 -d 1 -p cbr -e 210 -c 0 -i 6 -a 0 -x {0.0 1.0 6 ------- null}
- -t 0.5225 -s 0 -d 1 -p cbr -e 210 -c 0 -i 6 -a 0 -x {0.0 1.0 6 ------- null}
h -t 0.5225 -s 0 -d 1 -p cbr -e 210 -c 0 -i 6 -a 0 -x {0.0 1.0 -1 ------- null}
+ -t 0.52625 -s 0 -d 1 -p cbr -e 210 -c 0 -i 7 -a 0 -x {0.0 1.0 7 ------- null}
- -t 0.52625 -s 0 -d 1 -p cbr -e 210 -c 0 -i 7 -a 0 -x {0.0 1.0 7 ------- null}
h -t 0.52625 -s 0 -d 1 -p cbr -e 210 -c 0 -i 7 -a 0 -x {0.0 1.0 -1 ------- null}
+ -t 0.53 -s 0 -d 1 -p cbr -e 210 -c 0 -i 8 -a 0 -x {0.0 1.0 8 ------- null}
- -t 0.53 -s 0 -d 1 -p cbr -e 210 -c 0 -i 8 -a 0 -x {0.0 1.0 8 ------- null}
h -t 0.53 -s 0 -d 1 -p cbr -e 210 -c 0 -i 8 -a 0 -x {0.0 1.0 -1 ------- null}
+ -t 0.53375 -s 0 -d 1 -p cbr -e 210 -c 0 -i 9 -a 0 -x {0.0 1.0 9 ------- null}
- -t 0.53375 -s 0 -d 1 -p cbr -e 210 -c 0 -i 9 -a 0 -x {0.0 1.0 9 ------- null}
h -t 0.53375 -s 0 -d 1 -p cbr -e 210 -c 0 -i 9 -a 0 -x {0.0 1.0 -1 ------- null}
+ -t 0.5375 -s 0 -d 1 -p cbr -e 210 -c 0 -i 10 -a 0 -x {0.0 1.0 10 ------- null}
- -t 0.5375 -s 0 -d 1 -p cbr -e 210 -c 0 -i 10 -a 0 -x {0.0 1.0 10 ------- null}
h -t 0.5375 -s 0 -d 1 -p cbr -e 210 -c 0 -i 10 -a 0 -x {0.0 1.0 -1 ------- null}
+ -t 0.54125 -s 0 -d 1 -p cbr -e 210 -c 0 -i 11 -a 0 -x {0.0 1.0 11 ------- null}
- -t 0.54125 -s 0 -d 1 -p cbr -e 210 -c 0 -i 11 -a 0 -x {0.0 1.0 11 ------- null}
h -t 0.54125 -s 0 -d 1 -p cbr -e 210 -c 0 -i 11 -a 0 -x {0.0 1.0 -1 ------- null}
+ -t 0.545 -s 0 -d 1 -p cbr -e 210 -c 0 -i 12 -a 0 -x {0.0 1.0 12 ------- null}
- -t 0.545 -s 0 -d 1 -p cbr -e 210 -c 0 -i 12 -a 0 -x {0.0 1.0 12 ------- null}
h -t 0.545 -s 0 -d 1 -p cbr -e 210 -c 0 -i 12 -a 0 -x {0.0 1.0 -1 ------- null}
+ -t 0.54875 -s 0 -d 1 -p cbr -e 210 -c 0 -i 13 -a 0 -x {0.0 1.0 13 ------- null}
- -t 0.54875 -s 0 -d 1 -p cbr -e 210 -c 0 -i 13 -a 0 -x {0.0 1.0 13 ------- null}
h -t 0.54875 -s 0 -d 1 -p cbr -e 210 -c 0 -i 13 -a 0 -x {0.0 1.0 -1 ------- null}
+ -t 0.5525 -s 0 -d 1 -p cbr -e 210 -c 0 -i 14 -a 0 -x {0.0 1.0 14 ------- null}
- -t 0.5525 -s 0 -d 1 -p cbr -e 210 -c 0 -i 14 -a 0 -x {0.0 1.0 14 ------- null}
h -t 0.5525 -s 0 -d 1 -p cbr -e 210 -c 0 -i 14 -a 0 -x {0.0 1.0 -1 ------- null}
+ -t 0.55625 -s 0 -d 1 -p cbr -e 210 -c 0 -i 15 -a 0 -x {0.0 1.0 15 ------- null}
- -t 0.55625 -s 0 -d 1 -p cbr -e 210 -c 0 -i 15 -a 0 -x {0.0 1.0 15 ------- null}
h -t 0.55625 -s 0 -d 1 -p cbr -e 210 -c 0 -i 15 -a 0 -x {0.0 1.0 -1 ------- null}
+ -t 0.56 -s 0 -d 1 -p cbr -e 210 -c 0 -i 16 -a 0 -x {0.0 1.0 16 ------- null}
- -t 0.56 -s 0 -d 1 -p cbr -e 210 -c 0 -i 16 -a 0 -x {0.0 1.0 16 ------- null}
h -t 0.56 -s 0 -d 1 -p cbr -e 210 -c 0 -i 16 -a 0 -x {0.0 1.0 -1 ------- null}
+ -t 0.563750000000001 -s 0 -d 1 -p cbr -e 210 -c 0 -i 17 -a 0 -x {0.0 1.0 17 ------- null}
- -t 0.563750000000001 -s 0 -d 1 -p cbr -e 210 -c 0 -i 17 -a 0 -x {0.0 1.0 17 ------- null}
h -t 0.563750000000001 -s 0 -d 1 -p cbr -e 210 -c 0 -i 17 -a 0 -x {0.0 1.0 -1 ------- null}
+ -t 0.567500000000001 -s 0 -d 1 -p cbr -e 210 -c 0 -i 18 -a 0 -x {0.0 1.0 18 ------- null}
- -t 0.567500000000001 -s 0 -d 1 -p cbr -e 210 -c 0 -i 18 -a 0 -x {0.0 1.0 18 ------- null}
h -t 0.567500000000001 -s 0 -d 1 -p cbr -e 210 -c 0 -i 18 -a 0 -x {0.0 1.0 -1 ------- null}
+ -t 0.571250000000001 -s 0 -d 1 -p cbr -e 210 -c 0 -i 19 -a 0 -x {0.0 1.0 19 ------- null}
- -t 0.571250000000001 -s 0 -d 1 -p cbr -e 210 -c 0 -i 19 -a 0 -x {0.0 1.0 19 ------- null}
h -t 0.571250000000001 -s 0 -d 1 -p cbr -e 210 -c 0 -i 19 -a 0 -x {0.0 1.0 -1 ------- null}
+ -t 0.575000000000001 -s 0 -d 1 -p cbr -e 210 -c 0 -i 20 -a 0 -x {0.0 1.0 20 ------- null}
- -t 0.575000000000001 -s 0 -d 1 -p cbr -e 210 -c 0 -i 20 -a 0 -x {0.0 1.0 20 ------- null}
h -t 0.575000000000001 -s 0 -d 1 -p cbr -e 210 -c 0 -i 20 -a 0 -x {0.0 1.0 -1 ------- null}
+ -t 0.578750000000001 -s 0 -d 1 -p cbr -e 210 -c 0 -i 21 -a 0 -x {0.0 1.0 21 ------- null}
- -t 0.578750000000001 -s 0 -d 1 -p cbr -e 210 -c 0 -i 21 -a 0 -x {0.0 1.0 21 ------- null}
h -t 0.578750000000001 -s 0 -d 1 -p cbr -e 210 -c 0 -i 21 -a 0 -x {0.0 1.0 -1 ------- null}
+ -t 0.582500000000001 -s 0 -d 1 -p cbr -e 210 -c 0 -i 22 -a 0 -x {0.0 1.0 22 ------- null}
- -t 0.582500000000001 -s 0 -d 1 -p cbr -e 210 -c 0 -i 22 -a 0 -x {0.0 1.0 22 ------- null}
h -t 0.582500000000001 -s 0 -d 1 -p cbr -e 210 -c 0 -i 22 -a 0 -x {0.0 1.0 -1 ------- null}
+ -t 0.586250000000001 -s 0 -d 1 -p cbr -e 210 -c 0 -i 23 -a 0 -x {0.0 1.0 23 ------- null}
- -t 0.586250000000001 -s 0 -d 1 -p cbr -e 210 -c 0 -i 23 -a 0 -x {0.0 1.0 23 ------- null}
h -t 0.586250000000001 -s 0 -d 1 -p cbr -e 210 -c 0 -i 23 -a 0 -x {0.0 1.0 -1 ------- null}
+ -t 0.590000000000001 -s 0 -d 1 -p cbr -e 210 -c 0 -i 24 -a 0 -x {0.0 1.0 24 ------- null}
- -t 0.590000000000001 -s 0 -d 1 -p cbr -e 210 -c 0 -i 24 -a 0 -x {0.0 1.0 24 ------- null}
h -t 0.590000000000001 -s 0 -d 1 -p cbr -e 210 -c 0 -i 24 -a 0 -x {0.0 1.0 -1 ------- null}
+ -t 0.593750000000001 -s 0 -d 1 -p cbr -e 210 -c 0 -i 25 -a 0 -x {0.0 1.0 25 ------- null}
- -t 0.593750000000001 -s 0 -d 1 -p cbr -e 210 -c 0 -i 25 -a 0 -x {0.0 1.0 25 ------- null}
h -t 0.593750000000001 -s 0 -d 1 -p cbr -e 210 -c 0 -i 25 -a 0 -x {0.0 1.0 -1 ------- null}
+ -t 0.597500000000001 -s 0 -d 1 -p cbr -e 210 -c 0 -i 26 -a 0 -x {0.0 1.0 26 ------- null}
- -t 0.597500000000001 -s 0 -d 1 -p cbr -e 210 -c 0 -i 26 -a 0 -x {0.0 1.0 26 ------- null}
h -t 0.597500000000001 -s 0 -d 1 -p cbr -e 210 -c 0 -i 26 -a 0 -x {0.0 1.0 -1 ------- null}
+ -t 0.601250000000001 -s 0 -d 1 -p cbr -e 210 -c 0 -i 27 -a 0 -x {0.0 1.0 27 ------- null}
- -t 0.601250000000001 -s 0 -d 1 -p cbr -e 210 -c 0 -i 27 -a 0 -x {0.0 1.0 27 ------- null}
h -t 0.601250000000001 -s 0 -d 1 -p cbr -e 210 -c 0 -i 27 -a 0 -x {0.0 1.0 -1 ------- null}
+ -t 0.605000000000001 -s 0 -d 1 -p cbr -e 210 -c 0 -i 28 -a 0 -x {0.0 1.0 28 ------- null}
- -t 0.605000000000001 -s 0 -d 1 -p cbr -e 210 -c 0 -i 28 -a 0 -x {0.0 1.0 28 ------- null}
h -t 0.605000000000001 -s 0 -d 1 -p cbr -e 210 -c 0 -i 28 -a 0 -x {0.0 1.0 -1 ------- null}
+ -t 0.608750000000001 -s 0 -d 1 -p cbr -e 210 -c 0 -i 29 -a 0 -x {0.0 1.0 29 ------- null}
- -t 0.608750000000001 -s 0 -d 1 -p cbr -e 210 -c 0 -i 29 -a 0 -x {0.0 1.0 29 ------- null}
h -t 0.608750000000001 -s 0 -d 1 -p cbr -e 210 -c 0 -i 29 -a 0 -x {0.0 1.0 -1 ------- null}
+ -t 0.612500000000001 -s 0 -d 1 -p cbr -e 210 -c 0 -i 30 -a 0 -x {0.0 1.0 30 ------- null}
- -t 0.612500000000001 -s 0 -d 1 -p cbr -e 210 -c 0 -i 30 -a 0 -x {0.0 1.0 30 ------- null}
h -t 0.612500000000001 -s 0 -d 1 -p cbr -e 210 -c 0 -i 30 -a 0 -x {0.0 1.0 -1 ------- null}
+ -t 0.616250000000001 -s 0 -d 1 -p cbr -e 210 -c 0 -i 31 -a 0 -x {0.0 1.0 31 ------- null}
- -t 0.616250000000001 -s 0 -d 1 -p cbr -e 210 -c 0 -i 31 -a 0 -x {0.0 1.0 31 ------- null}
h -t 0.616250000000001 -s 0 -d 1 -p cbr -e 210 -c 0 -i 31 -a 0 -x {0.0 1.0 -1 ------- null}
+ -t 0.620000000000001 -s 0 -d 1 -p cbr -e 210 -c 0 -i 32 -a 0 -x {0.0 1.0 32 ------- null}
- -t 0.620000000000001 -s 0 -d 1 -p cbr -e 210 -c 0 -i 32 -a 0 -x {0.0 1.0 32 ------- null}
h -t 0.620000000000001 -s 0 -d 1 -p cbr -e 210 -c 0 -i 32 -a 0 -x {0.0 1.0 -1 ------- null}
+ -t 0.623750000000001 -s 0 -d 1 -p cbr -e 210 -c 0 -i 33 -a 0 -x {0.0 1.0 33 ------- null}
- -t 0.623750000000001 -s 0 -d 1 -p cbr -e 210 -c 0 -i 33 -a 0 -x {0.0 1.0 33 ------- null}
h -t 0.623750000000001 -s 0 -d 1 -p cbr -e 210 -c 0 -i 33 -a 0 -x {0.0 1.0 -1 ------- null}
+ -t 0.627500000000001 -s 0 -d 1 -p cbr -e 210 -c 0 -i 34 -a 0 -x {0.0 1.0 34 ------- null}
- -t 0.627500000000001 -s 0 -d 1 -p cbr -e 210 -c 0 -i 34 -a 0 -x {0.0 1.0 34 ------- null}
h -t 0.627500000000001 -s 0 -d 1 -p cbr -e 210 -c 0 -i 34 -a 0 -x {0.0 1.0 -1 ------- null}
+ -t 0.631250000000001 -s 0 -d 1 -p cbr -e 210 -c 0 -i 35 -a 0 -x {0.0 1.0 35 ------- null}
- -t 0.631250000000001 -s 0 -d 1 -p cbr -e 210 -c 0 -i 35 -a 0 -x {0.0 1.0 35 ------- null}
h -t 0.631250000000001 -s 0 -d 1 -p cbr -e 210 -c 0 -i 35 -a 0 -x {0.0 1.0 -1 ------- null}
+ -t 0.635000000000001 -s 0 -d 1 -p cbr -e 210 -c 0 -i 36 -a 0 -x {0.0 1.0 36 ------- null}
- -t 0.635000000000001 -s 0 -d 1 -p cbr -e 210 -c 0 -i 36 -a 0 -x {0.0 1.0 36 ------- null}
h -t 0.635000000000001 -s 0 -d 1 -p cbr -e 210 -c 0 -i 36 -a 0 -x {0.0 1.0 -1 ------- null}
+ -t 0.638750000000001 -s 0 -d 1 -p cbr -e 210 -c 0 -i 37 -a 0 -x {0.0 1.0 37 ------- null}
- -t 0.638750000000001 -s 0 -d 1 -p cbr -e 210 -c 0 -i 37 -a 0 -x {0.0 1.0 37 ------- null}
h -t 0.638750000000001 -s 0 -d 1 -p cbr -e 210 -c 0 -i 37 -a 0 -x {0.0 1.0 -1 ------- null}
+ -t 0.642500000000001 -s 0 -d 1 -p cbr -e 210 -c 0 -i 38 -a 0 -x {0.0 1.0 38 ------- null}
- -t 0.642500000000001 -s 0 -d 1 -p cbr -e 210 -c 0 -i 38 -a 0 -x {0.0 1.0 38 ------- null}
h -t 0.642500000000001 -s 0 -d 1 -p cbr -e 210 -c 0 -i 38 -a 0 -x {0.0 1.0 -1 ------- null}
+ -t 0.646250000000001 -s 0 -d 1 -p cbr -e 210 -c 0 -i 39 -a 0 -x {0.0 1.0 39 ------- null}
- -t 0.646250000000001 -s 0 -d 1 -p cbr -e 210 -c 0 -i 39 -a 0 -x {0.0 1.0 39 ------- null}
h -t 0.646250000000001 -s 0 -d 1 -p cbr -e 210 -c 0 -i 39 -a 0 -x {0.0 1.0 -1 ------- null}
+ -t 0.650000000000001 -s 0 -d 1 -p cbr -e 210 -c 0 -i 40 -a 0 -x {0.0 1.0 40 ------- null}
- -t 0.650000000000001 -s 0 -d 1 -p cbr -e 210 -c 0 -i 40 -a 0 -x {0.0 1.0 40 ------- null}
h -t 0.650000000000001 -s 0 -d 1 -p cbr -e 210 -c 0 -i 40 -a 0 -x {0.0 1.0 -1 ------- null}
+ -t 0.653750000000001 -s 0 -d 1 -p cbr -e 210 -c 0 -i 41 -a 0 -x {0.0 1.0 41 ------- null}
- -t 0.653750000000001 -s 0 -d 1 -p cbr -e 210 -c 0 -i 41 -a 0 -x {0.0 1.0 41 ------- null}
h -t 0.653750000000001 -s 0 -d 1 -p cbr -e 210 -c 0 -i 41 -a 0 -x {0.0 1.0 -1 ------- null}
+ -t 0.657500000000001 -s 0 -d 1 -p cbr -e 210 -c 0 -i 42 -a 0 -x {0.0 1.0 42 ------- null}
- -t 0.657500000000001 -s 0 -d 1 -p cbr -e 210 -c 0 -i 42 -a 0 -x {0.0 1.0 42 ------- null}
h -t 0.657500000000001 -s 0 -d 1 -p cbr -e 210 -c 0 -i 42 -a 0 -x {0.0 1.0 -1 ------- null}
+ -t 0.661250000000001 -s 0 -d 1 -p cbr -e 210 -c 0 -i 43 -a 0 -x {0.0 1.0 43 ------- null}
- -t 0.661250000000001 -s 0 -d 1 -p cbr -e 210 -c 0 -i 43 -a 0 -x {0.0 1.0 43 ------- null}
h -t 0.661250000000001 -s 0 -d 1 -p cbr -e 210 -c 0 -i 43 -a 0 -x {0.0 1.0 -1 ------- null}
+ -t 0.665000000000001 -s 0 -d 1 -p cbr -e 210 -c 0 -i 44 -a 0 -x {0.0 1.0 44 ------- null}
- -t 0.665000000000001 -s 0 -d 1 -p cbr -e 210 -c 0 -i 44 -a 0 -x {0.0 1.0 44 ------- null}
h -t 0.665000000000001 -s 0 -d 1 -p cbr -e 210 -c 0 -i 44 -a 0 -x {0.0 1.0 -1 ------- null}
+ -t 0.668750000000001 -s 0 -d 1 -p cbr -e 210 -c 0 -i 45 -a 0 -x {0.0 1.0 45 ------- null}
- -t 0.668750000000001 -s 0 -d 1 -p cbr -e 210 -c 0 -i 45 -a 0 -x {0.0 1.0 45 ------- null}
h -t 0.668750000000001 -s 0 -d 1 -p cbr -e 210 -c 0 -i 45 -a 0 -x {0.0 1.0 -1 ------- null}
+ -t 0.672500000000001 -s 0 -d 1 -p cbr -e 210 -c 0 -i 46 -a 0 -x {0.0 1.0 46 ------- null}
- -t 0.672500000000001 -s 0 -d 1 -p cbr -e 210 -c 0 -i 46 -a 0 -x {0.0 1.0 46 ------- null}
h -t 0.672500000000001 -s 0 -d 1 -p cbr -e 210 -c 0 -i 46 -a 0 -x {0.0 1.0 -1 ------- null}
+ -t 0.676250000000001 -s 0 -d 1 -p cbr -e 210 -c 0 -i 47 -a 0 -x {0.0 1.0 47 ------- null}
- -t 0.676250000000001 -s 0 -d 1 -p cbr -e 210 -c 0 -i 47 -a 0 -x {0.0 1.0 47 ------- null}
h -t 0.676250000000001 -s 0 -d 1 -p cbr -e 210 -c 0 -i 47 -a 0 -x {0.0 1.0 -1 ------- null}
+ -t 0.680000000000001 -s 0 -d 1 -p cbr -e 210 -c 0 -i 48 -a 0 -x {0.0 1.0 48 ------- null}
- -t 0.680000000000001 -s 0 -d 1 -p cbr -e 210 -c 0 -i 48 -a 0 -x {0.0 1.0 48 ------- null}
h -t 0.680000000000001 -s 0 -d 1 -p cbr -e 210 -c 0 -i 48 -a 0 -x {0.0 1.0 -1 ------- null}
+ -t 0.683750000000002 -s 0 -d 1 -p cbr -e 210 -c 0 -i 49 -a 0 -x {0.0 1.0 49 ------- null}
- -t 0.683750000000002 -s 0 -d 1 -p cbr -e 210 -c 0 -i 49 -a 0 -x {0.0 1.0 49 ------- null}
h -t 0.683750000000002 -s 0 -d 1 -p cbr -e 210 -c 0 -i 49 -a 0 -x {0.0 1.0 -1 ------- null}
+ -t 0.687500000000002 -s 0 -d 1 -p cbr -e 210 -c 0 -i 50 -a 0 -x {0.0 1.0 50 ------- null}
- -t 0.687500000000002 -s 0 -d 1 -p cbr -e 210 -c 0 -i 50 -a 0 -x {0.0 1.0 50 ------- null}
h -t 0.687500000000002 -s 0 -d 1 -p cbr -e 210 -c 0 -i 50 -a 0 -x {0.0 1.0 -1 ------- null}
+ -t 0.691250000000002 -s 0 -d 1 -p cbr -e 210 -c 0 -i 51 -a 0 -x {0.0 1.0 51 ------- null}
- -t 0.691250000000002 -s 0 -d 1 -p cbr -e 210 -c 0 -i 51 -a 0 -x {0.0 1.0 51 ------- null}
h -t 0.691250000000002 -s 0 -d 1 -p cbr -e 210 -c 0 -i 51 -a 0 -x {0.0 1.0 -1 ------- null}
+ -t 0.695000000000002 -s 0 -d 1 -p cbr -e 210 -c 0 -i 52 -a 0 -x {0.0 1.0 52 ------- null}
- -t 0.695000000000002 -s 0 -d 1 -p cbr -e 210 -c 0 -i 52 -a 0 -x {0.0 1.0 52 ------- null}
h -t 0.695000000000002 -s 0 -d 1 -p cbr -e 210 -c 0 -i 52 -a 0 -x {0.0 1.0 -1 ------- null}
+ -t 0.698750000000002 -s 0 -d 1 -p cbr -e 210 -c 0 -i 53 -a 0 -x {0.0 1.0 53 ------- null}
- -t 0.698750000000002 -s 0 -d 1 -p cbr -e 210 -c 0 -i 53 -a 0 -x {0.0 1.0 53 ------- null}
h -t 0.698750000000002 -s 0 -d 1 -p cbr -e 210 -c 0 -i 53 -a 0 -x {0.0 1.0 -1 ------- null}
+ -t 0.702500000000002 -s 0 -d 1 -p cbr -e 210 -c 0 -i 54 -a 0 -x {0.0 1.0 54 ------- null}
- -t 0.702500000000002 -s 0 -d 1 -p cbr -e 210 -c 0 -i 54 -a 0 -x {0.0 1.0 54 ------- null}
h -t 0.702500000000002 -s 0 -d 1 -p cbr -e 210 -c 0 -i 54 -a 0 -x {0.0 1.0 -1 ------- null}
+ -t 0.706250000000002 -s 0 -d 1 -p cbr -e 210 -c 0 -i 55 -a 0 -x {0.0 1.0 55 ------- null}
- -t 0.706250000000002 -s 0 -d 1 -p cbr -e 210 -c 0 -i 55 -a 0 -x {0.0 1.0 55 ------- null}
h -t 0.706250000000002 -s 0 -d 1 -p cbr -e 210 -c 0 -i 55 -a 0 -x {0.0 1.0 -1 ------- null}
+ -t 0.710000000000002 -s 0 -d 1 -p cbr -e 210 -c 0 -i 56 -a 0 -x {0.0 1.0 56 ------- null}
- -t 0.710000000000002 -s 0 -d 1 -p cbr -e 210 -c 0 -i 56 -a 0 -x {0.0 1.0 56 ------- null}
h -t 0.710000000000002 -s 0 -d 1 -p cbr -e 210 -c 0 -i 56 -a 0 -x {0.0 1.0 -1 ------- null}
+ -t 0.713750000000002 -s 0 -d 1 -p cbr -e 210 -c 0 -i 57 -a 0 -x {0.0 1.0 57 ------- null}
- -t 0.713750000000002 -s 0 -d 1 -p cbr -e 210 -c 0 -i 57 -a 0 -x {0.0 1.0 57 ------- null}
h -t 0.713750000000002 -s 0 -d 1 -p cbr -e 210 -c 0 -i 57 -a 0 -x {0.0 1.0 -1 ------- null}
+ -t 0.717500000000002 -s 0 -d 1 -p cbr -e 210 -c 0 -i 58 -a 0 -x {0.0 1.0 58 ------- null}
- -t 0.717500000000002 -s 0 -d 1 -p cbr -e 210 -c 0 -i 58 -a 0 -x {0.0 1.0 58 ------- null}
h -t 0.717500000000002 -s 0 -d 1 -p cbr -e 210 -c 0 -i 58 -a 0 -x {0.0 1.0 -1 ------- null}
+ -t 0.721250000000002 -s 0 -d 1 -p cbr -e 210 -c 0 -i 59 -a 0 -x {0.0 1.0 59 ------- null}
- -t 0.721250000000002 -s 0 -d 1 -p cbr -e 210 -c 0 -i 59 -a 0 -x {0.0 1.0 59 ------- null}
h -t 0.721250000000002 -s 0 -d 1 -p cbr -e 210 -c 0 -i 59 -a 0 -x {0.0 1.0 -1 ------- null}
+ -t 0.725000000000002 -s 0 -d 1 -p cbr -e 210 -c 0 -i 60 -a 0 -x {0.0 1.0 60 ------- null}
- -t 0.725000000000002 -s 0 -d 1 -p cbr -e 210 -c 0 -i 60 -a 0 -x {0.0 1.0 60 ------- null}
h -t 0.725000000000002 -s 0 -d 1 -p cbr -e 210 -c 0 -i 60 -a 0 -x {0.0 1.0 -1 ------- null}
+ -t 0.728750000000002 -s 0 -d 1 -p cbr -e 210 -c 0 -i 61 -a 0 -x {0.0 1.0 61 ------- null}
- -t 0.728750000000002 -s 0 -d 1 -p cbr -e 210 -c 0 -i 61 -a 0 -x {0.0 1.0 61 ------- null}
h -t 0.728750000000002 -s 0 -d 1 -p cbr -e 210 -c 0 -i 61 -a 0 -x {0.0 1.0 -1 ------- null}
+ -t 0.732500000000002 -s 0 -d 1 -p cbr -e 210 -c 0 -i 62 -a 0 -x {0.0 1.0 62 ------- null}
- -t 0.732500000000002 -s 0 -d 1 -p cbr -e 210 -c 0 -i 62 -a 0 -x {0.0 1.0 62 ------- null}
h -t 0.732500000000002 -s 0 -d 1 -p cbr -e 210 -c 0 -i 62 -a 0 -x {0.0 1.0 -1 ------- null}
+ -t 0.736250000000002 -s 0 -d 1 -p cbr -e 210 -c 0 -i 63 -a 0 -x {0.0 1.0 63 ------- null}
- -t 0.736250000000002 -s 0 -d 1 -p cbr -e 210 -c 0 -i 63 -a 0 -x {0.0 1.0 63 ------- null}
h -t 0.736250000000002 -s 0 -d 1 -p cbr -e 210 -c 0 -i 63 -a 0 -x {0.0 1.0 -1 ------- null}
+ -t 0.740000000000002 -s 0 -d 1 -p cbr -e 210 -c 0 -i 64 -a 0 -x {0.0 1.0 64 ------- null}
- -t 0.740000000000002 -s 0 -d 1 -p cbr -e 210 -c 0 -i 64 -a 0 -x {0.0 1.0 64 ------- null}
h -t 0.740000000000002 -s 0 -d 1 -p cbr -e 210 -c 0 -i 64 -a 0 -x {0.0 1.0 -1 ------- null}
+ -t 0.743750000000002 -s 0 -d 1 -p cbr -e 210 -c 0 -i 65 -a 0 -x {0.0 1.0 65 ------- null}
- -t 0.743750000000002 -s 0 -d 1 -p cbr -e 210 -c 0 -i 65 -a 0 -x {0.0 1.0 65 ------- null}
h -t 0.743750000000002 -s 0 -d 1 -p cbr -e 210 -c 0 -i 65 -a 0 -x {0.0 1.0 -1 ------- null}
+ -t 0.747500000000002 -s 0 -d 1 -p cbr -e 210 -c 0 -i 66 -a 0 -x {0.0 1.0 66 ------- null}
- -t 0.747500000000002 -s 0 -d 1 -p cbr -e 210 -c 0 -i 66 -a 0 -x {0.0 1.0 66 ------- null}
h -t 0.747500000000002 -s 0 -d 1 -p cbr -e 210 -c 0 -i 66 -a 0 -x {0.0 1.0 -1 ------- null}
+ -t 0.751250000000002 -s 0 -d 1 -p cbr -e 210 -c 0 -i 67 -a 0 -x {0.0 1.0 67 ------- null}
- -t 0.751250000000002 -s 0 -d 1 -p cbr -e 210 -c 0 -i 67 -a 0 -x {0.0 1.0 67 ------- null}
h -t 0.751250000000002 -s 0 -d 1 -p cbr -e 210 -c 0 -i 67 -a 0 -x {0.0 1.0 -1 ------- null}
+ -t 0.755000000000002 -s 0 -d 1 -p cbr -e 210 -c 0 -i 68 -a 0 -x {0.0 1.0 68 ------- null}
- -t 0.755000000000002 -s 0 -d 1 -p cbr -e 210 -c 0 -i 68 -a 0 -x {0.0 1.0 68 ------- null}
h -t 0.755000000000002 -s 0 -d 1 -p cbr -e 210 -c 0 -i 68 -a 0 -x {0.0 1.0 -1 ------- null}
+ -t 0.758750000000002 -s 0 -d 1 -p cbr -e 210 -c 0 -i 69 -a 0 -x {0.0 1.0 69 ------- null}
- -t 0.758750000000002 -s 0 -d 1 -p cbr -e 210 -c 0 -i 69 -a 0 -x {0.0 1.0 69 ------- null}
h -t 0.758750000000002 -s 0 -d 1 -p cbr -e 210 -c 0 -i 69 -a 0 -x {0.0 1.0 -1 ------- null}
+ -t 0.762500000000002 -s 0 -d 1 -p cbr -e 210 -c 0 -i 70 -a 0 -x {0.0 1.0 70 ------- null}
- -t 0.762500000000002 -s 0 -d 1 -p cbr -e 210 -c 0 -i 70 -a 0 -x {0.0 1.0 70 ------- null}
h -t 0.762500000000002 -s 0 -d 1 -p cbr -e 210 -c 0 -i 70 -a 0 -x {0.0 1.0 -1 ------- null}
+ -t 0.766250000000002 -s 0 -d 1 -p cbr -e 210 -c 0 -i 71 -a 0 -x {0.0 1.0 71 ------- null}
- -t 0.766250000000002 -s 0 -d 1 -p cbr -e 210 -c 0 -i 71 -a 0 -x {0.0 1.0 71 ------- null}
h -t 0.766250000000002 -s 0 -d 1 -p cbr -e 210 -c 0 -i 71 -a 0 -x {0.0 1.0 -1 ------- null}
+ -t 0.770000000000002 -s 0 -d 1 -p cbr -e 210 -c 0 -i 72 -a 0 -x {0.0 1.0 72 ------- null}
- -t 0.770000000000002 -s 0 -d 1 -p cbr -e 210 -c 0 -i 72 -a 0 -x {0.0 1.0 72 ------- null}
h -t 0.770000000000002 -s 0 -d 1 -p cbr -e 210 -c 0 -i 72 -a 0 -x {0.0 1.0 -1 ------- null}
+ -t 0.773750000000002 -s 0 -d 1 -p cbr -e 210 -c 0 -i 73 -a 0 -x {0.0 1.0 73 ------- null}
- -t 0.773750000000002 -s 0 -d 1 -p cbr -e 210 -c 0 -i 73 -a 0 -x {0.0 1.0 73 ------- null}
h -t 0.773750000000002 -s 0 -d 1 -p cbr -e 210 -c 0 -i 73 -a 0 -x {0.0 1.0 -1 ------- null}
+ -t 0.777500000000002 -s 0 -d 1 -p cbr -e 210 -c 0 -i 74 -a 0 -x {0.0 1.0 74 ------- null}
- -t 0.777500000000002 -s 0 -d 1 -p cbr -e 210 -c 0 -i 74 -a 0 -x {0.0 1.0 74 ------- null}
h -t 0.777500000000002 -s 0 -d 1 -p cbr -e 210 -c 0 -i 74 -a 0 -x {0.0 1.0 -1 ------- null}
+ -t 0.781250000000002 -s 0 -d 1 -p cbr -e 210 -c 0 -i 75 -a 0 -x {0.0 1.0 75 ------- null}
- -t 0.781250000000002 -s 0 -d 1 -p cbr -e 210 -c 0 -i 75 -a 0 -x {0.0 1.0 75 ------- null}
h -t 0.781250000000002 -s 0 -d 1 -p cbr -e 210 -c 0 -i 75 -a 0 -x {0.0 1.0 -1 ------- null}
+ -t 0.785000000000002 -s 0 -d 1 -p cbr -e 210 -c 0 -i 76 -a 0 -x {0.0 1.0 76 ------- null}
- -t 0.785000000000002 -s 0 -d 1 -p cbr -e 210 -c 0 -i 76 -a 0 -x {0.0 1.0 76 ------- null}
h -t 0.785000000000002 -s 0 -d 1 -p cbr -e 210 -c 0 -i 76 -a 0 -x {0.0 1.0 -1 ------- null}
+ -t 0.788750000000002 -s 0 -d 1 -p cbr -e 210 -c 0 -i 77 -a 0 -x {0.0 1.0 77 ------- null}
- -t 0.788750000000002 -s 0 -d 1 -p cbr -e 210 -c 0 -i 77 -a 0 -x {0.0 1.0 77 ------- null}
h -t 0.788750000000002 -s 0 -d 1 -p cbr -e 210 -c 0 -i 77 -a 0 -x {0.0 1.0 -1 ------- null}
+ -t 0.792500000000002 -s 0 -d 1 -p cbr -e 210 -c 0 -i 78 -a 0 -x {0.0 1.0 78 ------- null}
- -t 0.792500000000002 -s 0 -d 1 -p cbr -e 210 -c 0 -i 78 -a 0 -x {0.0 1.0 78 ------- null}
h -t 0.792500000000002 -s 0 -d 1 -p cbr -e 210 -c 0 -i 78 -a 0 -x {0.0 1.0 -1 ------- null}
+ -t 0.796250000000002 -s 0 -d 1 -p cbr -e 210 -c 0 -i 79 -a 0 -x {0.0 1.0 79 ------- null}
- -t 0.796250000000002 -s 0 -d 1 -p cbr -e 210 -c 0 -i 79 -a 0 -x {0.0 1.0 79 ------- null}
h -t 0.796250000000002 -s 0 -d 1 -p cbr -e 210 -c 0 -i 79 -a 0 -x {0.0 1.0 -1 ------- null}
+ -t 0.800000000000002 -s 0 -d 1 -p cbr -e 210 -c 0 -i 80 -a 0 -x {0.0 1.0 80 ------- null}
- -t 0.800000000000002 -s 0 -d 1 -p cbr -e 210 -c 0 -i 80 -a 0 -x {0.0 1.0 80 ------- null}
h -t 0.800000000000002 -s 0 -d 1 -p cbr -e 210 -c 0 -i 80 -a 0 -x {0.0 1.0 -1 ------- null}
+ -t 0.803750000000003 -s 0 -d 1 -p cbr -e 210 -c 0 -i 81 -a 0 -x {0.0 1.0 81 ------- null}
- -t 0.803750000000003 -s 0 -d 1 -p cbr -e 210 -c 0 -i 81 -a 0 -x {0.0 1.0 81 ------- null}
h -t 0.803750000000003 -s 0 -d 1 -p cbr -e 210 -c 0 -i 81 -a 0 -x {0.0 1.0 -1 ------- null}
+ -t 0.807500000000003 -s 0 -d 1 -p cbr -e 210 -c 0 -i 82 -a 0 -x {0.0 1.0 82 ------- null}
- -t 0.807500000000003 -s 0 -d 1 -p cbr -e 210 -c 0 -i 82 -a 0 -x {0.0 1.0 82 ------- null}
h -t 0.807500000000003 -s 0 -d 1 -p cbr -e 210 -c 0 -i 82 -a 0 -x {0.0 1.0 -1 ------- null}
+ -t 0.811250000000003 -s 0 -d 1 -p cbr -e 210 -c 0 -i 83 -a 0 -x {0.0 1.0 83 ------- null}
- -t 0.811250000000003 -s 0 -d 1 -p cbr -e 210 -c 0 -i 83 -a 0 -x {0.0 1.0 83 ------- null}
h -t 0.811250000000003 -s 0 -d 1 -p cbr -e 210 -c 0 -i 83 -a 0 -x {0.0 1.0 -1 ------- null}
+ -t 0.815000000000003 -s 0 -d 1 -p cbr -e 210 -c 0 -i 84 -a 0 -x {0.0 1.0 84 ------- null}
- -t 0.815000000000003 -s 0 -d 1 -p cbr -e 210 -c 0 -i 84 -a 0 -x {0.0 1.0 84 ------- null}
h -t 0.815000000000003 -s 0 -d 1 -p cbr -e 210 -c 0 -i 84 -a 0 -x {0.0 1.0 -1 ------- null}
+ -t 0.818750000000003 -s 0 -d 1 -p cbr -e 210 -c 0 -i 85 -a 0 -x {0.0 1.0 85 ------- null}
- -t 0.818750000000003 -s 0 -d 1 -p cbr -e 210 -c 0 -i 85 -a 0 -x {0.0 1.0 85 ------- null}
h -t 0.818750000000003 -s 0 -d 1 -p cbr -e 210 -c 0 -i 85 -a 0 -x {0.0 1.0 -1 ------- null}
+ -t 0.822500000000003 -s 0 -d 1 -p cbr -e 210 -c 0 -i 86 -a 0 -x {0.0 1.0 86 ------- null}
- -t 0.822500000000003 -s 0 -d 1 -p cbr -e 210 -c 0 -i 86 -a 0 -x {0.0 1.0 86 ------- null}
h -t 0.822500000000003 -s 0 -d 1 -p cbr -e 210 -c 0 -i 86 -a 0 -x {0.0 1.0 -1 ------- null}
+ -t 0.826250000000003 -s 0 -d 1 -p cbr -e 210 -c 0 -i 87 -a 0 -x {0.0 1.0 87 ------- null}
- -t 0.826250000000003 -s 0 -d 1 -p cbr -e 210 -c 0 -i 87 -a 0 -x {0.0 1.0 87 ------- null}
h -t 0.826250000000003 -s 0 -d 1 -p cbr -e 210 -c 0 -i 87 -a 0 -x {0.0 1.0 -1 ------- null}
+ -t 0.830000000000003 -s 0 -d 1 -p cbr -e 210 -c 0 -i 88 -a 0 -x {0.0 1.0 88 ------- null}
- -t 0.830000000000003 -s 0 -d 1 -p cbr -e 210 -c 0 -i 88 -a 0 -x {0.0 1.0 88 ------- null}
h -t 0.830000000000003 -s 0 -d 1 -p cbr -e 210 -c 0 -i 88 -a 0 -x {0.0 1.0 -1 ------- null}
+ -t 0.833750000000003 -s 0 -d 1 -p cbr -e 210 -c 0 -i 89 -a 0 -x {0.0 1.0 89 ------- null}
- -t 0.833750000000003 -s 0 -d 1 -p cbr -e 210 -c 0 -i 89 -a 0 -x {0.0 1.0 89 ------- null}
h -t 0.833750000000003 -s 0 -d 1 -p cbr -e 210 -c 0 -i 89 -a 0 -x {0.0 1.0 -1 ------- null}
+ -t 0.837500000000003 -s 0 -d 1 -p cbr -e 210 -c 0 -i 90 -a 0 -x {0.0 1.0 90 ------- null}
- -t 0.837500000000003 -s 0 -d 1 -p cbr -e 210 -c 0 -i 90 -a 0 -x {0.0 1.0 90 ------- null}
h -t 0.837500000000003 -s 0 -d 1 -p cbr -e 210 -c 0 -i 90 -a 0 -x {0.0 1.0 -1 ------- null}
+ -t 0.841250000000003 -s 0 -d 1 -p cbr -e 210 -c 0 -i 91 -a 0 -x {0.0 1.0 91 ------- null}
- -t 0.841250000000003 -s 0 -d 1 -p cbr -e 210 -c 0 -i 91 -a 0 -x {0.0 1.0 91 ------- null}
h -t 0.841250000000003 -s 0 -d 1 -p cbr -e 210 -c 0 -i 91 -a 0 -x {0.0 1.0 -1 ------- null}
+ -t 0.845000000000003 -s 0 -d 1 -p cbr -e 210 -c 0 -i 92 -a 0 -x {0.0 1.0 92 ------- null}
- -t 0.845000000000003 -s 0 -d 1 -p cbr -e 210 -c 0 -i 92 -a 0 -x {0.0 1.0 92 ------- null}
h -t 0.845000000000003 -s 0 -d 1 -p cbr -e 210 -c 0 -i 92 -a 0 -x {0.0 1.0 -1 ------- null}
+ -t 0.848750000000003 -s 0 -d 1 -p cbr -e 210 -c 0 -i 93 -a 0 -x {0.0 1.0 93 ------- null}
- -t 0.848750000000003 -s 0 -d 1 -p cbr -e 210 -c 0 -i 93 -a 0 -x {0.0 1.0 93 ------- null}
h -t 0.848750000000003 -s 0 -d 1 -p cbr -e 210 -c 0 -i 93 -a 0 -x {0.0 1.0 -1 ------- null}
+ -t 0.852500000000003 -s 0 -d 1 -p cbr -e 210 -c 0 -i 94 -a 0 -x {0.0 1.0 94 ------- null}
- -t 0.852500000000003 -s 0 -d 1 -p cbr -e 210 -c 0 -i 94 -a 0 -x {0.0 1.0 94 ------- null}
h -t 0.852500000000003 -s 0 -d 1 -p cbr -e 210 -c 0 -i 94 -a 0 -x {0.0 1.0 -1 ------- null}
+ -t 0.856250000000003 -s 0 -d 1 -p cbr -e 210 -c 0 -i 95 -a 0 -x {0.0 1.0 95 ------- null}
- -t 0.856250000000003 -s 0 -d 1 -p cbr -e 210 -c 0 -i 95 -a 0 -x {0.0 1.0 95 ------- null}
h -t 0.856250000000003 -s 0 -d 1 -p cbr -e 210 -c 0 -i 95 -a 0 -x {0.0 1.0 -1 ------- null}
+ -t 0.860000000000003 -s 0 -d 1 -p cbr -e 210 -c 0 -i 96 -a 0 -x {0.0 1.0 96 ------- null}
- -t 0.860000000000003 -s 0 -d 1 -p cbr -e 210 -c 0 -i 96 -a 0 -x {0.0 1.0 96 ------- null}
h -t 0.860000000000003 -s 0 -d 1 -p cbr -e 210 -c 0 -i 96 -a 0 -x {0.0 1.0 -1 ------- null}
+ -t 0.863750000000003 -s 0 -d 1 -p cbr -e 210 -c 0 -i 97 -a 0 -x {0.0 1.0 97 ------- null}
- -t 0.863750000000003 -s 0 -d 1 -p cbr -e 210 -c 0 -i 97 -a 0 -x {0.0 1.0 97 ------- null}
h -t 0.863750000000003 -s 0 -d 1 -p cbr -e 210 -c 0 -i 97 -a 0 -x {0.0 1.0 -1 ------- null}
+ -t 0.867500000000003 -s 0 -d 1 -p cbr -e 210 -c 0 -i 98 -a 0 -x {0.0 1.0 98 ------- null}
- -t 0.867500000000003 -s 0 -d 1 -p cbr -e 210 -c 0 -i 98 -a 0 -x {0.0 1.0 98 ------- null}
h -t 0.867500000000003 -s 0 -d 1 -p cbr -e 210 -c 0 -i 98 -a 0 -x {0.0 1.0 -1 ------- null}
+ -t 0.871250000000003 -s 0 -d 1 -p cbr -e 210 -c 0 -i 99 -a 0 -x {0.0 1.0 99 ------- null}
- -t 0.871250000000003 -s 0 -d 1 -p cbr -e 210 -c 0 -i 99 -a 0 -x {0.0 1.0 99 ------- null}
h -t 0.871250000000003 -s 0 -d 1 -p cbr -e 210 -c 0 -i 99 -a 0 -x {0.0 1.0 -1 ------- null}
+ -t 0.875000000000003 -s 0 -d 1 -p cbr -e 210 -c 0 -i 100 -a 0 -x {0.0 1.0 100 ------- null}
- -t 0.875000000000003 -s 0 -d 1 -p cbr -e 210 -c 0 -i 100 -a 0 -x {0.0 1.0 100 ------- null}
h -t 0.875000000000003 -s 0 -d 1 -p cbr -e 210 -c 0 -i 100 -a 0 -x {0.0 1.0 -1 ------- null}
+ -t 0.878750000000003 -s 0 -d 1 -p cbr -e 210 -c 0 -i 101 -a 0 -x {0.0 1.0 101 ------- null}
- -t 0.878750000000003 -s 0 -d 1 -p cbr -e 210 -c 0 -i 101 -a 0 -x {0.0 1.0 101 ------- null}
h -t 0.878750000000003 -s 0 -d 1 -p cbr -e 210 -c 0 -i 101 -a 0 -x {0.0 1.0 -1 ------- null}
+ -t 0.882500000000003 -s 0 -d 1 -p cbr -e 210 -c 0 -i 102 -a 0 -x {0.0 1.0 102 ------- null}
- -t 0.882500000000003 -s 0 -d 1 -p cbr -e 210 -c 0 -i 102 -a 0 -x {0.0 1.0 102 ------- null}
h -t 0.882500000000003 -s 0 -d 1 -p cbr -e 210 -c 0 -i 102 -a 0 -x {0.0 1.0 -1 ------- null}
+ -t 0.886250000000003 -s 0 -d 1 -p cbr -e 210 -c 0 -i 103 -a 0 -x {0.0 1.0 103 ------- null}
- -t 0.886250000000003 -s 0 -d 1 -p cbr -e 210 -c 0 -i 103 -a 0 -x {0.0 1.0 103 ------- null}
h -t 0.886250000000003 -s 0 -d 1 -p cbr -e 210 -c 0 -i 103 -a 0 -x {0.0 1.0 -1 ------- null}
+ -t 0.890000000000003 -s 0 -d 1 -p cbr -e 210 -c 0 -i 104 -a 0 -x {0.0 1.0 104 ------- null}
- -t 0.890000000000003 -s 0 -d 1 -p cbr -e 210 -c 0 -i 104 -a 0 -x {0.0 1.0 104 ------- null}
h -t 0.890000000000003 -s 0 -d 1 -p cbr -e 210 -c 0 -i 104 -a 0 -x {0.0 1.0 -1 ------- null}
+ -t 0.893750000000003 -s 0 -d 1 -p cbr -e 210 -c 0 -i 105 -a 0 -x {0.0 1.0 105 ------- null}
- -t 0.893750000000003 -s 0 -d 1 -p cbr -e 210 -c 0 -i 105 -a 0 -x {0.0 1.0 105 ------- null}
h -t 0.893750000000003 -s 0 -d 1 -p cbr -e 210 -c 0 -i 105 -a 0 -x {0.0 1.0 -1 ------- null}
+ -t 0.897500000000003 -s 0 -d 1 -p cbr -e 210 -c 0 -i 106 -a 0 -x {0.0 1.0 106 ------- null}
- -t 0.897500000000003 -s 0 -d 1 -p cbr -e 210 -c 0 -i 106 -a 0 -x {0.0 1.0 106 ------- null}
h -t 0.897500000000003 -s 0 -d 1 -p cbr -e 210 -c 0 -i 106 -a 0 -x {0.0 1.0 -1 ------- null}
+ -t 0.901250000000003 -s 0 -d 1 -p cbr -e 210 -c 0 -i 107 -a 0 -x {0.0 1.0 107 ------- null}
- -t 0.901250000000003 -s 0 -d 1 -p cbr -e 210 -c 0 -i 107 -a 0 -x {0.0 1.0 107 ------- null}
h -t 0.901250000000003 -s 0 -d 1 -p cbr -e 210 -c 0 -i 107 -a 0 -x {0.0 1.0 -1 ------- null}
+ -t 0.905000000000003 -s 0 -d 1 -p cbr -e 210 -c 0 -i 108 -a 0 -x {0.0 1.0 108 ------- null}
- -t 0.905000000000003 -s 0 -d 1 -p cbr -e 210 -c 0 -i 108 -a 0 -x {0.0 1.0 108 ------- null}
h -t 0.905000000000003 -s 0 -d 1 -p cbr -e 210 -c 0 -i 108 -a 0 -x {0.0 1.0 -1 ------- null}
+ -t 0.908750000000003 -s 0 -d 1 -p cbr -e 210 -c 0 -i 109 -a 0 -x {0.0 1.0 109 ------- null}
- -t 0.908750000000003 -s 0 -d 1 -p cbr -e 210 -c 0 -i 109 -a 0 -x {0.0 1.0 109 ------- null}